  LAMMPS description
 
       8   atoms
 
       2   atom types
 
       0    4.328216     xlo xhi
       0    4.328216     ylo yhi
       0    4.328216     zlo zhi
  0.0000000      0.0000000      0.0000000     xy xz yz

  Masses

       1   40.080000
       2   16.000000

   Atoms

       1       0       1    2.000000    0.000000    0.000000    0.000000
       2       0       1    2.000000    0.000000    2.164108    2.164108
       3       0       1    2.000000    2.164107    0.000000    2.164108
       4       0       1    2.000000    2.164107    2.164108    0.000000
       5       0       2   -2.000000    4.328216    0.000000    2.164108
       6       0       2   -2.000000    4.328216    2.164108    0.000000
       7       0       2   -2.000000    2.164107    0.000000    0.000000
       8       0       2   -2.000000    2.164107    2.164108    2.164108
